
     Program BANDS v.7.4.1 starts on  7Sep2025 at  1: 3:35 

     This program is part of the open-source Quantum ESPRESSO suite
     for quantum simulation of materials; please cite
         "P. Giannozzi et al., J. Phys.:Condens. Matter 21 395502 (2009);
         "P. Giannozzi et al., J. Phys.:Condens. Matter 29 465901 (2017);
         "P. Giannozzi et al., J. Chem. Phys. 152 154105 (2020);
          URL http://www.quantum-espresso.org", 
     in publications or presentations arising from this work. More details at
     http://www.quantum-espresso.org/quote

     Serial version
     5832 MiB available memory on the printing compute node when the environment starts


     Reading xml data from directory:

     /tmp/graphene.save/
     file C.pbe-n-kjpaw_psl.1.0.0.UPF: wavefunction(s)  2S 2P renormalized

     IMPORTANT: XC functional enforced from input :
     Exchange-correlation= PBE
                           (   1   4   3   4   0   0   0)
     Any further DFT definition will be discarded
     Please, verify this is what you really want


     G-vector sticks info
     --------------------
     sticks:   dense  smooth     PW     G-vecs:    dense   smooth      PW
     Sum         595     241     85                35435     8973    1713

     Using Slab Decomposition


     Check: negative core charge=   -0.000004

     negative rho (up, down):  9.529E-06 0.000E+00
     Reading collected, re-writing distributed wavefunctions
     high-symmetry point:  0.0000 0.0000 0.0000   x coordinate   0.0000
     high-symmetry point:  0.3333 0.5774 0.0000   x coordinate   0.6667
     high-symmetry point:  0.0000 0.5774 0.0000   x coordinate   1.0000
     high-symmetry point:  0.0000 0.0000 0.0000   x coordinate   1.5774

     Plottable bands (eV) written to file graphene_bands.dat.gnu
     Bands written to file graphene_bands.dat

 **************************************************************************

                    xk=(   0.00000,   0.00000,   0.00000  )

     point group D_6h(6/mmm)
     there are 12 classes
     the character table:

       E     2C6   2C3   C2    3C2'  3C2'' i     2S3   2S6   s_h   3s_d  3s_v 
A_1g   1.00  1.00  1.00  1.00  1.00  1.00  1.00  1.00  1.00  1.00  1.00  1.00
A_2g   1.00  1.00  1.00  1.00 -1.00 -1.00  1.00  1.00  1.00  1.00 -1.00 -1.00
B_1g   1.00 -1.00  1.00 -1.00  1.00 -1.00  1.00 -1.00  1.00 -1.00  1.00 -1.00
B_2g   1.00 -1.00  1.00 -1.00 -1.00  1.00  1.00 -1.00  1.00 -1.00 -1.00  1.00
E_1g   2.00  1.00 -1.00 -2.00  0.00  0.00  2.00  1.00 -1.00 -2.00  0.00  0.00
E_2g   2.00 -1.00 -1.00  2.00  0.00  0.00  2.00 -1.00 -1.00  2.00  0.00  0.00
A_1u   1.00  1.00  1.00  1.00  1.00  1.00 -1.00 -1.00 -1.00 -1.00 -1.00 -1.00
A_2u   1.00  1.00  1.00  1.00 -1.00 -1.00 -1.00 -1.00 -1.00 -1.00  1.00  1.00
B_1u   1.00 -1.00  1.00 -1.00  1.00 -1.00 -1.00  1.00 -1.00  1.00 -1.00  1.00
B_2u   1.00 -1.00  1.00 -1.00 -1.00  1.00 -1.00  1.00 -1.00  1.00  1.00 -1.00
E_1u   2.00  1.00 -1.00 -2.00  0.00  0.00 -2.00 -1.00  1.00  2.00  0.00  0.00
E_2u   2.00 -1.00 -1.00  2.00  0.00  0.00 -2.00  1.00  1.00 -2.00  0.00  0.00

     the symmetry operations in each class and the name of the first element:

     E        1
                                                                 
     2C6      5    6
                                                                 
     2C3      7    8
                                                                 
     C2       2
                                                                 
     3C2'     4   12   11
                                                                 
     3C2''    3    9   10
                                                                 
     i       13
                                                                 
     2S3     17   18
                                                                 
     2S6     19   20
                                                                 
     s_h     14
                                                                 
     3s_d    16   24   23
                                                                 
     3s_v    15   21   22
                                                                 

     Band symmetry, D_6h(6/mmm) point group:

     e(  1 -  1) =    -18.65182  eV     1   --> A_1g           
     e(  2 -  2) =     -6.73977  eV     1   --> A_2u           
     e(  3 -  4) =     -2.14219  eV     2   --> E_2g           
     e(  5 -  5) =      3.74578  eV     1   --> A_1g           
     e(  6 -  6) =      7.12047  eV     1   --> A_2u           
     e(  7 -  8) =      9.26471  eV     2   --> E_1u           

 **************************************************************************

 **************************************************************************

                    xk=(   0.01667,   0.02887,   0.00000  )

     point group C_2v (mm2) 
     there are  4 classes
     the character table:

       E     C2    s_v   s_v' 
A_1    1.00  1.00  1.00  1.00
A_2    1.00  1.00 -1.00 -1.00
B_1    1.00 -1.00  1.00 -1.00
B_2    1.00 -1.00 -1.00  1.00

     the symmetry operations in each class and the name of the first element:

     E        1
                                                                 
     C2       2
                                                                 
     s_v      3
                                                                 
     s_v'     4
                                                                 

     Band symmetry, C_2v (mm2)  point group:

     e(  1 -  1) =    -18.63208  eV     1   --> A_1  D_1  S_1  
     e(  2 -  2) =     -6.71613  eV     1   --> B_2  D_4  S_4  
     e(  3 -  3) =     -2.22348  eV     1   --> B_1  D_3  S_3  
     e(  4 -  4) =     -2.18577  eV     1   --> A_1  D_1  S_1  
     e(  5 -  5) =      3.77263  eV     1   --> A_1  D_1  S_1  
     e(  6 -  6) =      7.14620  eV     1   --> B_2  D_4  S_4  
     e(  7 -  7) =      9.26163  eV     1   --> A_1  D_1  S_1  
     e(  8 -  8) =      9.35062  eV     1   --> B_1  D_3  S_3  

 **************************************************************************

 **************************************************************************

                    xk=(   0.03333,   0.05774,   0.00000  )

     Band symmetry, C_2v (mm2)  point group:

     e(  1 -  1) =    -18.57289  eV     1   --> A_1  D_1  S_1  
     e(  2 -  2) =     -6.64528  eV     1   --> B_2  D_4  S_4  
     e(  3 -  3) =     -2.45945  eV     1   --> B_1  D_3  S_3  
     e(  4 -  4) =     -2.31540  eV     1   --> A_1  D_1  S_1  
     e(  5 -  5) =      3.85318  eV     1   --> A_1  D_1  S_1  
     e(  6 -  6) =      7.22330  eV     1   --> B_2  D_4  S_4  
     e(  7 -  7) =      9.27530  eV     1   --> A_1  D_1  S_1  
     e(  8 -  8) =      9.52538  eV     1   --> A_1  D_1  S_1  

 **************************************************************************

 **************************************************************************

                    xk=(   0.05000,   0.08660,   0.00000  )

     Band symmetry, C_2v (mm2)  point group:

     e(  1 -  1) =    -18.47434  eV     1   --> A_1  D_1  S_1  
     e(  2 -  2) =     -6.52746  eV     1   --> B_2  D_4  S_4  
     e(  3 -  3) =     -2.82553  eV     1   --> B_1  D_3  S_3  
     e(  4 -  4) =     -2.52636  eV     1   --> A_1  D_1  S_1  
     e(  5 -  5) =      3.98747  eV     1   --> A_1  D_1  S_1  
     e(  6 -  6) =      7.35158  eV     1   --> B_2  D_4  S_4  
     e(  7 -  7) =      9.32416  eV     1   --> A_1  D_1  S_1  
     e(  8 -  8) =      9.67712  eV     1   --> A_1  D_1  S_1  

 **************************************************************************

 **************************************************************************

                    xk=(   0.06667,   0.11547,   0.00000  )

     Band symmetry, C_2v (mm2)  point group:

     e(  1 -  1) =    -18.33655  eV     1   --> A_1  D_1  S_1  
     e(  2 -  2) =     -6.36297  eV     1   --> B_2  D_4  S_4  
     e(  3 -  3) =     -3.29240  eV     1   --> B_1  D_3  S_3  
     e(  4 -  4) =     -2.81157  eV     1   --> A_1  D_1  S_1  
     e(  5 -  5) =      4.17550  eV     1   --> A_1  D_1  S_1  
     e(  6 -  6) =      7.53067  eV     1   --> B_2  D_4  S_4  
     e(  7 -  7) =      9.41412  eV     1   --> A_1  D_1  S_1  
     e(  8 -  8) =      9.87314  eV     1   --> A_1  D_1  S_1  

 **************************************************************************

 **************************************************************************

                    xk=(   0.08333,   0.14434,   0.00000  )

     Band symmetry, C_2v (mm2)  point group:

     e(  1 -  1) =    -18.15969  eV     1   --> A_1  D_1  S_1  
     e(  2 -  2) =     -6.15237  eV     1   --> B_2  D_4  S_4  
     e(  3 -  3) =     -3.83054  eV     1   --> B_1  D_3  S_3  
     e(  4 -  4) =     -3.16276  eV     1   --> A_1  D_1  S_1  
     e(  5 -  5) =      4.41728  eV     1   --> A_1  D_1  S_1  
     e(  6 -  6) =      7.75999  eV     1   --> B_2  D_4  S_4  
     e(  7 -  7) =      9.54813  eV     1   --> A_1  D_1  S_1  
     e(  8 -  8) =     10.11394  eV     1   --> A_1  D_1  S_1  

 **************************************************************************

 **************************************************************************

                    xk=(   0.10000,   0.17321,   0.00000  )

     Band symmetry, C_2v (mm2)  point group:

     e(  1 -  1) =    -17.94406  eV     1   --> A_1  D_1  S_1  
     e(  2 -  2) =     -5.89649  eV     1   --> B_2  D_4  S_4  
     e(  3 -  3) =     -4.41388  eV     1   --> B_1  D_3  S_3  
     e(  4 -  4) =     -3.56874  eV     1   --> A_1  D_1  S_1  
     e(  5 -  5) =      4.71278  eV     1   --> A_1  D_1  S_1  
     e(  6 -  6) =      8.03867  eV     1   --> B_2  D_4  S_4  
     e(  7 -  7) =      9.72824  eV     1   --> A_1  D_1  S_1  
     e(  8 -  8) =     10.17369  eV     1   --> A_2  D_2  S_2  

 **************************************************************************

 **************************************************************************

                    xk=(   0.11667,   0.20207,   0.00000  )

     Band symmetry, C_2v (mm2)  point group:

     e(  1 -  1) =    -17.69001  eV     1   --> A_1  D_1  S_1  
     e(  2 -  2) =     -5.59634  eV     1   --> B_2  D_4  S_4  
     e(  3 -  3) =     -5.02332  eV     1   --> B_1  D_3  S_3  
     e(  4 -  4) =     -4.01925  eV     1   --> A_1  D_1  S_1  
     e(  5 -  5) =      5.06190  eV     1   --> A_1  D_1  S_1  
     e(  6 -  6) =      8.36539  eV     1   --> B_2  D_4  S_4  
     e(  7 -  7) =      9.50206  eV     1   --> A_2  D_2  S_2  
     e(  8 -  8) =      9.95494  eV     1   --> A_1  D_1  S_1  

 **************************************************************************

 **************************************************************************

                    xk=(   0.13333,   0.23094,   0.00000  )

     Band symmetry, C_2v (mm2)  point group:

     e(  1 -  1) =    -17.39784  eV     1   --> A_1  D_1  S_1  
     e(  2 -  2) =     -5.64381  eV     1   --> B_1  D_3  S_3  
     e(  3 -  3) =     -5.25280  eV     1   --> B_2  D_4  S_4  
     e(  4 -  4) =     -4.50325  eV     1   --> A_1  D_1  S_1  
     e(  5 -  5) =      5.46455  eV     1   --> A_1  D_1  S_1  
     e(  6 -  6) =      8.73845  eV     1   --> B_2  D_4  S_4  
     e(  7 -  7) =      8.79135  eV     1   --> A_2  D_2  S_2  
     e(  8 -  8) =     10.22812  eV     1   --> A_1  D_1  S_1  

 **************************************************************************

 **************************************************************************

                    xk=(   0.15000,   0.25981,   0.00000  )

     Band symmetry, C_2v (mm2)  point group:

     e(  1 -  1) =    -17.06819  eV     1   --> A_1  D_1  S_1  
     e(  2 -  2) =     -6.26457  eV     1   --> B_1  D_3  S_3  
     e(  3 -  3) =     -5.01069  eV     1   --> A_1  D_1  S_1  
     e(  4 -  4) =     -4.86767  eV     1   --> B_2  D_4  S_4  
     e(  5 -  5) =      5.92050  eV     1   --> A_1  D_1  S_1  
     e(  6 -  6) =      8.05634  eV     1   --> A_2  D_2  S_2  
     e(  7 -  7) =      9.15488  eV     1   --> B_2  D_4  S_4  
     e(  8 -  8) =     10.54603  eV     1   --> A_1  D_1  S_1  

 **************************************************************************

 **************************************************************************

                    xk=(   0.16667,   0.28868,   0.00000  )

     Band symmetry, C_2v (mm2)  point group:

     e(  1 -  1) =    -16.70173  eV     1   --> A_1  D_1  S_1  
     e(  2 -  2) =     -6.87701  eV     1   --> B_1  D_3  S_3  
     e(  3 -  3) =     -5.53225  eV     1   --> A_1  D_1  S_1  
     e(  4 -  4) =     -4.44294  eV     1   --> B_2  D_4  S_4  
     e(  5 -  5) =      6.42950  eV     1   --> A_1  D_1  S_1  
     e(  6 -  6) =      7.31008  eV     1   --> A_2  D_2  S_2  
     e(  7 -  7) =      9.61012  eV     1   --> B_2  D_4  S_4  
     e(  8 -  8) =     10.90585  eV     1   --> A_1  D_1  S_1  

 **************************************************************************

 **************************************************************************

                    xk=(   0.18333,   0.31754,   0.00000  )

     Band symmetry, C_2v (mm2)  point group:

     e(  1 -  1) =    -16.29931  eV     1   --> A_1  D_1  S_1  
     e(  2 -  2) =     -7.47495  eV     1   --> B_1  D_3  S_3  
     e(  3 -  3) =     -6.05943  eV     1   --> A_1  D_1  S_1  
     e(  4 -  4) =     -3.98097  eV     1   --> B_2  D_4  S_4  
     e(  5 -  5) =      6.56407  eV     1   --> A_2  D_2  S_2  
     e(  6 -  6) =      6.99116  eV     1   --> A_1  D_1  S_1  
     e(  7 -  7) =     10.09657  eV     1   --> B_2  D_4  S_4  
     e(  8 -  8) =     11.30444  eV     1   --> A_1  D_1  S_1  

 **************************************************************************

 **************************************************************************

                    xk=(   0.20000,   0.34641,   0.00000  )

     Band symmetry, C_2v (mm2)  point group:

     e(  1 -  1) =    -15.86208  eV     1   --> A_1  D_1  S_1  
     e(  2 -  2) =     -8.05380  eV     1   --> B_1  D_3  S_3  
     e(  3 -  3) =     -6.58455  eV     1   --> A_1  D_1  S_1  
     e(  4 -  4) =     -3.48507  eV     1   --> B_2  D_4  S_4  
     e(  5 -  5) =      5.82696  eV     1   --> A_2  D_2  S_2  
     e(  6 -  6) =      7.60493  eV     1   --> A_1  D_1  S_1  
     e(  7 -  7) =     10.60069  eV     1   --> B_2  D_4  S_4  
     e(  8 -  8) =     11.73644  eV     1   --> A_1  D_1  S_1  

 **************************************************************************

 **************************************************************************

                    xk=(   0.21667,   0.37528,   0.00000  )

     Band symmetry, C_2v (mm2)  point group:

     e(  1 -  1) =    -15.39159  eV     1   --> A_1  D_1  S_1  
     e(  2 -  2) =     -8.60990  eV     1   --> B_1  D_3  S_3  
     e(  3 -  3) =     -7.10055  eV     1   --> A_1  D_1  S_1  
     e(  4 -  4) =     -2.95914  eV     1   --> B_2  D_4  S_4  
     e(  5 -  5) =      5.10630  eV     1   --> A_2  D_2  S_2  
     e(  6 -  6) =      8.26998  eV     1   --> A_1  D_1  S_1  
     e(  7 -  7) =     11.09722  eV     1   --> B_2  D_4  S_4  
     e(  8 -  8) =     12.19509  eV     1   --> A_1  D_1  S_1  

 **************************************************************************

 **************************************************************************

                    xk=(   0.23333,   0.40415,   0.00000  )

     Band symmetry, C_2v (mm2)  point group:

     e(  1 -  1) =    -14.88990  eV     1   --> A_1  D_1  S_1  
     e(  2 -  2) =     -9.14114  eV     1   --> B_1  D_3  S_3  
     e(  3 -  3) =     -7.60158  eV     1   --> A_1  D_1  S_1  
     e(  4 -  4) =     -2.40832  eV     1   --> B_2  D_4  S_4  
     e(  5 -  5) =      4.40782  eV     1   --> A_2  D_2  S_2  
     e(  6 -  6) =      8.98501  eV     1   --> A_1  D_1  S_1  
     e(  7 -  7) =     11.53836  eV     1   --> B_2  D_4  S_4  
     e(  8 -  8) =     12.66939  eV     1   --> A_1  D_1  S_1  

 **************************************************************************

 **************************************************************************

                    xk=(   0.25000,   0.43301,   0.00000  )

     Band symmetry, C_2v (mm2)  point group:

     e(  1 -  1) =    -14.36029  eV     1   --> A_1  D_1  S_1  
     e(  2 -  2) =     -9.64488  eV     1   --> B_1  D_3  S_3  
     e(  3 -  3) =     -8.08084  eV     1   --> A_1  D_1  S_1  
     e(  4 -  4) =     -1.83967  eV     1   --> B_2  D_4  S_4  
     e(  5 -  5) =      3.73699  eV     1   --> A_2  D_2  S_2  
     e(  6 -  6) =      9.74780  eV     1   --> A_1  D_1  S_1  
     e(  7 -  7) =     11.84637  eV     1   --> B_2  D_4  S_4  
     e(  8 -  8) =     13.14256  eV     1   --> A_1  D_1  S_1  

 **************************************************************************

 **************************************************************************

                    xk=(   0.26667,   0.46188,   0.00000  )

     Band symmetry, C_2v (mm2)  point group:

     e(  1 -  1) =    -13.80756  eV     1   --> A_1  D_1  S_1  
     e(  2 -  2) =    -10.11988  eV     1   --> B_1  D_3  S_3  
     e(  3 -  3) =     -8.53146  eV     1   --> A_1  D_1  S_1  
     e(  4 -  4) =     -1.26125  eV     1   --> B_2  D_4  S_4  
     e(  5 -  5) =      3.09755  eV     1   --> A_2  D_2  S_2  
     e(  6 -  6) =     10.55440  eV     1   --> A_1  D_1  S_1  
     e(  7 -  7) =     11.95335  eV     1   --> B_2  D_4  S_4  
     e(  8 -  8) =     13.58721  eV     1   --> A_1  D_1  S_1  

 **************************************************************************

 **************************************************************************

                    xk=(   0.28333,   0.49075,   0.00000  )

     Band symmetry, C_2v (mm2)  point group:

     e(  1 -  1) =    -13.23979  eV     1   --> A_1  D_1  S_1  
     e(  2 -  2) =    -10.56501  eV     1   --> B_1  D_3  S_3  
     e(  3 -  3) =     -8.94404  eV     1   --> A_1  D_1  S_1  
     e(  4 -  4) =     -0.68340  eV     1   --> B_2  D_4  S_4  
     e(  5 -  5) =      2.49277  eV     1   --> A_2  D_2  S_2  
     e(  6 -  6) =     11.39682  eV     1   --> A_1  D_1  S_1  
     e(  7 -  7) =     11.88775  eV     1   --> B_2  D_4  S_4  
     e(  8 -  8) =     13.86221  eV     1   --> B_1  D_3  S_3  

 **************************************************************************

 **************************************************************************

                    xk=(   0.30000,   0.51962,   0.00000  )

     Band symmetry, C_2v (mm2)  point group:

     e(  1 -  1) =    -12.67256  eV     1   --> A_1  D_1  S_1  
     e(  2 -  2) =    -10.97938  eV     1   --> B_1  D_3  S_3  
     e(  3 -  3) =     -9.30299  eV     1   --> A_1  D_1  S_1  
     e(  4 -  4) =     -0.11918  eV     1   --> B_2  D_4  S_4  
     e(  5 -  5) =      1.92496  eV     1   --> A_2  D_2  S_2  
     e(  6 -  6) =     11.75183  eV     1   --> B_2  D_4  S_4  
     e(  7 -  7) =     12.25626  eV     1   --> A_1  D_1  S_1  
     e(  8 -  8) =     13.89816  eV     1   --> B_1  D_3  S_3  

 **************************************************************************

 **************************************************************************

                    xk=(   0.31667,   0.54848,   0.00000  )

     Band symmetry, C_2v (mm2)  point group:

     e(  1 -  1) =    -12.13915  eV     1   --> A_1  D_1  S_1  
     e(  2 -  2) =    -11.36217  eV     1   --> B_1  D_3  S_3  
     e(  3 -  3) =     -9.57582  eV     1   --> A_1  D_1  S_1  
     e(  4 -  4) =      0.41720  eV     1   --> B_2  D_4  S_4  
     e(  5 -  5) =      1.39671  eV     1   --> A_2  D_2  S_2  
     e(  6 -  6) =     11.63374  eV     1   --> B_2  D_4  S_4  
     e(  7 -  7) =     13.07765  eV     1   --> A_1  D_1  S_1  
     e(  8 -  8) =     13.82386  eV     1   --> B_1  D_3  S_3  

 **************************************************************************

 **************************************************************************

                    xk=(   0.33333,   0.57735,   0.00000  )

     zone border point and non-symmorphic group 
     symmetry decomposition not available

 **************************************************************************

 **************************************************************************

                    xk=(   0.30000,   0.57735,   0.00000  )

     zone border point and non-symmorphic group 
     symmetry decomposition not available

 **************************************************************************

 **************************************************************************

                    xk=(   0.26667,   0.57735,   0.00000  )

     zone border point and non-symmorphic group 
     symmetry decomposition not available

 **************************************************************************

 **************************************************************************

                    xk=(   0.23333,   0.57735,   0.00000  )

     zone border point and non-symmorphic group 
     symmetry decomposition not available

 **************************************************************************

 **************************************************************************

                    xk=(   0.20000,   0.57735,   0.00000  )

     zone border point and non-symmorphic group 
     symmetry decomposition not available

 **************************************************************************

 **************************************************************************

                    xk=(   0.16667,   0.57735,   0.00000  )

     zone border point and non-symmorphic group 
     symmetry decomposition not available

 **************************************************************************

 **************************************************************************

                    xk=(   0.13333,   0.57735,   0.00000  )

     zone border point and non-symmorphic group 
     symmetry decomposition not available

 **************************************************************************

 **************************************************************************

                    xk=(   0.10000,   0.57735,   0.00000  )

     zone border point and non-symmorphic group 
     symmetry decomposition not available

 **************************************************************************

 **************************************************************************

                    xk=(   0.06667,   0.57735,   0.00000  )

     zone border point and non-symmorphic group 
     symmetry decomposition not available

 **************************************************************************

 **************************************************************************

                    xk=(   0.03333,   0.57735,   0.00000  )

     zone border point and non-symmorphic group 
     symmetry decomposition not available

 **************************************************************************

 **************************************************************************

                    xk=(   0.00000,   0.57735,   0.00000  )

     zone border point and non-symmorphic group 
     symmetry decomposition not available

 **************************************************************************

 **************************************************************************

                    xk=(   0.00000,   0.54339,   0.00000  )

     point group C_2v (mm2) 
     there are  4 classes
     the character table:

       E     C2    s_v   s_v' 
A_1    1.00  1.00  1.00  1.00
A_2    1.00  1.00 -1.00 -1.00
B_1    1.00 -1.00  1.00 -1.00
B_2    1.00 -1.00 -1.00  1.00

     the symmetry operations in each class and the name of the first element:

     E        1
                                                                 
     C2       2
                                                                 
     s_v      3
                                                                 
     s_v'     4
                                                                 

     Band symmetry, C_2v (mm2)  point group:

     e(  1 -  1) =    -13.69355  eV     1   --> A_1  D_1  S_1  
     e(  2 -  2) =    -12.03731  eV     1   --> A_1  D_1  S_1  
     e(  3 -  3) =     -5.51630  eV     1   --> B_1  D_3  S_3  
     e(  4 -  4) =     -1.59083  eV     1   --> B_2  D_4  S_4  
     e(  5 -  5) =      2.75604  eV     1   --> B_2  D_4  S_4  
     e(  6 -  6) =      8.34424  eV     1   --> A_1  D_1  S_1  
     e(  7 -  7) =     10.83504  eV     1   --> A_1  D_1  S_1  
     e(  8 -  8) =     12.66610  eV     1   --> A_1  D_1  S_1  

 **************************************************************************

 **************************************************************************

                    xk=(   0.00000,   0.50943,   0.00000  )

     Band symmetry, C_2v (mm2)  point group:

     e(  1 -  1) =    -14.21506  eV     1   --> A_1  D_1  S_1  
     e(  2 -  2) =    -11.42463  eV     1   --> A_1  D_1  S_1  
     e(  3 -  3) =     -5.45494  eV     1   --> B_1  D_3  S_3  
     e(  4 -  4) =     -1.93145  eV     1   --> B_2  D_4  S_4  
     e(  5 -  5) =      3.19248  eV     1   --> B_2  D_4  S_4  
     e(  6 -  6) =      8.37409  eV     1   --> A_1  D_1  S_1  
     e(  7 -  7) =      9.99270  eV     1   --> A_1  D_1  S_1  
     e(  8 -  8) =     12.88744  eV     1   --> B_2  D_4  S_4  

 **************************************************************************

 **************************************************************************

                    xk=(   0.00000,   0.47546,   0.00000  )

     Band symmetry, C_2v (mm2)  point group:

     e(  1 -  1) =    -14.75222  eV     1   --> A_1  D_1  S_1  
     e(  2 -  2) =    -10.73662  eV     1   --> A_1  D_1  S_1  
     e(  3 -  3) =     -5.35372  eV     1   --> B_1  D_3  S_3  
     e(  4 -  4) =     -2.38797  eV     1   --> B_2  D_4  S_4  
     e(  5 -  5) =      3.80583  eV     1   --> B_2  D_4  S_4  
     e(  6 -  6) =      8.41871  eV     1   --> A_1  D_1  S_1  
     e(  7 -  7) =      9.20473  eV     1   --> A_1  D_1  S_1  
     e(  8 -  8) =     12.20342  eV     1   --> B_2  D_4  S_4  

 **************************************************************************

 **************************************************************************

                    xk=(   0.00000,   0.44150,   0.00000  )

     Band symmetry, C_2v (mm2)  point group:

     e(  1 -  1) =    -15.26925  eV     1   --> A_1  D_1  S_1  
     e(  2 -  2) =    -10.01082  eV     1   --> A_1  D_1  S_1  
     e(  3 -  3) =     -5.21342  eV     1   --> B_1  D_3  S_3  
     e(  4 -  4) =     -2.89062  eV     1   --> B_2  D_4  S_4  
     e(  5 -  5) =      4.52394  eV     1   --> B_2  D_4  S_4  
     e(  6 -  6) =      8.36354  eV     1   --> A_1  D_1  S_1  
     e(  7 -  7) =      8.58704  eV     1   --> A_1  D_1  S_1  
     e(  8 -  8) =     11.54207  eV     1   --> B_2  D_4  S_4  

 **************************************************************************

 **************************************************************************

                    xk=(   0.00000,   0.40754,   0.00000  )

     Band symmetry, C_2v (mm2)  point group:

     e(  1 -  1) =    -15.75663  eV     1   --> A_1  D_1  S_1  
     e(  2 -  2) =     -9.25966  eV     1   --> A_1  D_1  S_1  
     e(  3 -  3) =     -5.03612  eV     1   --> B_1  D_3  S_3  
     e(  4 -  4) =     -3.40087  eV     1   --> B_2  D_4  S_4  
     e(  5 -  5) =      5.30215  eV     1   --> B_2  D_4  S_4  
     e(  6 -  6) =      7.74057  eV     1   --> A_1  D_1  S_1  
     e(  7 -  7) =      8.60661  eV     1   --> A_1  D_1  S_1  
     e(  8 -  8) =     10.91556  eV     1   --> B_2  D_4  S_4  

 **************************************************************************

 **************************************************************************

                    xk=(   0.00000,   0.37358,   0.00000  )

     Band symmetry, C_2v (mm2)  point group:

     e(  1 -  1) =    -16.21017  eV     1   --> A_1  D_1  S_1  
     e(  2 -  2) =     -8.49049  eV     1   --> A_1  D_1  S_1  
     e(  3 -  3) =     -4.82367  eV     1   --> B_1  D_3  S_3  
     e(  4 -  4) =     -3.89675  eV     1   --> B_2  D_4  S_4  
     e(  5 -  5) =      6.11252  eV     1   --> B_2  D_4  S_4  
     e(  6 -  6) =      7.10938  eV     1   --> A_1  D_1  S_1  
     e(  7 -  7) =      8.70203  eV     1   --> A_1  D_1  S_1  
     e(  8 -  8) =     10.33083  eV     1   --> B_2  D_4  S_4  

 **************************************************************************

 **************************************************************************

                    xk=(   0.00000,   0.33962,   0.00000  )

     Band symmetry, C_2v (mm2)  point group:

     e(  1 -  1) =    -16.62778  eV     1   --> A_1  D_1  S_1  
     e(  2 -  2) =     -7.71118  eV     1   --> A_1  D_1  S_1  
     e(  3 -  3) =     -4.57925  eV     1   --> B_1  D_3  S_3  
     e(  4 -  4) =     -4.36623  eV     1   --> B_2  D_4  S_4  
     e(  5 -  5) =      6.52850  eV     1   --> A_1  D_1  S_1  
     e(  6 -  6) =      6.93336  eV     1   --> B_2  D_4  S_4  
     e(  7 -  7) =      8.81109  eV     1   --> A_1  D_1  S_1  
     e(  8 -  8) =      9.79308  eV     1   --> B_2  D_4  S_4  

 **************************************************************************

 **************************************************************************

                    xk=(   0.00000,   0.30566,   0.00000  )

     Band symmetry, C_2v (mm2)  point group:

     e(  1 -  1) =    -17.00813  eV     1   --> A_1  D_1  S_1  
     e(  2 -  2) =     -6.92902  eV     1   --> A_1  D_1  S_1  
     e(  3 -  3) =     -4.80186  eV     1   --> B_2  D_4  S_4  
     e(  4 -  4) =     -4.30681  eV     1   --> B_1  D_3  S_3  
     e(  5 -  5) =      6.00132  eV     1   --> A_1  D_1  S_1  
     e(  6 -  6) =      7.74218  eV     1   --> B_2  D_4  S_4  
     e(  7 -  7) =      8.92550  eV     1   --> A_1  D_1  S_1  
     e(  8 -  8) =      9.31089  eV     1   --> B_2  D_4  S_4  

 **************************************************************************

 **************************************************************************

                    xk=(   0.00000,   0.27169,   0.00000  )

     Band symmetry, C_2v (mm2)  point group:

     e(  1 -  1) =    -17.35028  eV     1   --> A_1  D_1  S_1  
     e(  2 -  2) =     -6.15328  eV     1   --> A_1  D_1  S_1  
     e(  3 -  3) =     -5.19889  eV     1   --> B_2  D_4  S_4  
     e(  4 -  4) =     -4.01188  eV     1   --> B_1  D_3  S_3  
     e(  5 -  5) =      5.52877  eV     1   --> A_1  D_1  S_1  
     e(  6 -  6) =      8.45398  eV     1   --> B_2  D_4  S_4  
     e(  7 -  7) =      8.95494  eV     1   --> B_2  D_4  S_4  
     e(  8 -  8) =      9.03763  eV     1   --> A_1  D_1  S_1  

 **************************************************************************

 **************************************************************************

                    xk=(   0.00000,   0.23773,   0.00000  )

     Band symmetry, C_2v (mm2)  point group:

     e(  1 -  1) =    -17.65353  eV     1   --> A_1  D_1  S_1  
     e(  2 -  2) =     -5.55408  eV     1   --> B_2  D_4  S_4  
     e(  3 -  3) =     -5.39488  eV     1   --> A_1  D_1  S_1  
     e(  4 -  4) =     -3.70103  eV     1   --> B_1  D_3  S_3  
     e(  5 -  5) =      5.11132  eV     1   --> A_1  D_1  S_1  
     e(  6 -  6) =      8.38931  eV     1   --> B_2  D_4  S_4  
     e(  7 -  7) =      9.13856  eV     1   --> A_1  D_1  S_1  
     e(  8 -  8) =      9.39062  eV     1   --> B_2  D_4  S_4  

 **************************************************************************

 **************************************************************************

                    xk=(   0.00000,   0.20377,   0.00000  )

     Band symmetry, C_2v (mm2)  point group:

     e(  1 -  1) =    -17.91726  eV     1   --> A_1  D_1  S_1  
     e(  2 -  2) =     -5.86511  eV     1   --> B_2  D_4  S_4  
     e(  3 -  3) =     -4.66847  eV     1   --> A_1  D_1  S_1  
     e(  4 -  4) =     -3.38360  eV     1   --> B_1  D_3  S_3  
     e(  5 -  5) =      4.74924  eV     1   --> A_1  D_1  S_1  
     e(  6 -  6) =      8.06907  eV     1   --> B_2  D_4  S_4  
     e(  7 -  7) =      9.21890  eV     1   --> A_1  D_1  S_1  
     e(  8 -  8) =     10.08242  eV     1   --> B_2  D_4  S_4  

 **************************************************************************

 **************************************************************************

                    xk=(   0.00000,   0.16981,   0.00000  )

     Band symmetry, C_2v (mm2)  point group:

     e(  1 -  1) =    -18.14102  eV     1   --> A_1  D_1  S_1  
     e(  2 -  2) =     -6.13031  eV     1   --> B_2  D_4  S_4  
     e(  3 -  3) =     -3.99068  eV     1   --> A_1  D_1  S_1  
     e(  4 -  4) =     -3.07080  eV     1   --> B_1  D_3  S_3  
     e(  5 -  5) =      4.44270  eV     1   --> A_1  D_1  S_1  
     e(  6 -  6) =      7.78325  eV     1   --> B_2  D_4  S_4  
     e(  7 -  7) =      9.27027  eV     1   --> A_1  D_1  S_1  
     e(  8 -  8) =     10.10354  eV     1   --> A_1  D_1  S_1  

 **************************************************************************

 **************************************************************************

                    xk=(   0.00000,   0.13585,   0.00000  )

     Band symmetry, C_2v (mm2)  point group:

     e(  1 -  1) =    -18.32455  eV     1   --> A_1  D_1  S_1  
     e(  2 -  2) =     -6.34868  eV     1   --> B_2  D_4  S_4  
     e(  3 -  3) =     -3.38239  eV     1   --> A_1  D_1  S_1  
     e(  4 -  4) =     -2.77723  eV     1   --> B_1  D_3  S_3  
     e(  5 -  5) =      4.19181  eV     1   --> A_1  D_1  S_1  
     e(  6 -  6) =      7.54605  eV     1   --> B_2  D_4  S_4  
     e(  7 -  7) =      9.28896  eV     1   --> A_1  D_1  S_1  
     e(  8 -  8) =      9.86773  eV     1   --> A_1  D_1  S_1  

 **************************************************************************

 **************************************************************************

                    xk=(   0.00000,   0.10189,   0.00000  )

     Band symmetry, C_2v (mm2)  point group:

     e(  1 -  1) =    -18.46759  eV     1   --> A_1  D_1  S_1  
     e(  2 -  2) =     -6.51938  eV     1   --> B_2  D_4  S_4  
     e(  3 -  3) =     -2.86848  eV     1   --> A_1  D_1  S_1  
     e(  4 -  4) =     -2.52031  eV     1   --> B_1  D_3  S_3  
     e(  5 -  5) =      3.99666  eV     1   --> A_1  D_1  S_1  
     e(  6 -  6) =      7.36033  eV     1   --> B_2  D_4  S_4  
     e(  7 -  7) =      9.28184  eV     1   --> A_1  D_1  S_1  
     e(  8 -  8) =      9.67750  eV     1   --> A_1  D_1  S_1  

 **************************************************************************

 **************************************************************************

                    xk=(   0.00000,   0.06792,   0.00000  )

     Band symmetry, C_2v (mm2)  point group:

     e(  1 -  1) =    -18.56990  eV     1   --> A_1  D_1  S_1  
     e(  2 -  2) =     -6.64171  eV     1   --> B_2  D_4  S_4  
     e(  3 -  3) =     -2.47516  eV     1   --> A_1  D_1  S_1  
     e(  4 -  4) =     -2.31727  eV     1   --> B_1  D_3  S_3  
     e(  5 -  5) =      3.85727  eV     1   --> A_1  D_1  S_1  
     e(  6 -  6) =      7.22720  eV     1   --> B_2  D_4  S_4  
     e(  7 -  7) =      9.26647  eV     1   --> A_1  D_1  S_1  
     e(  8 -  8) =      9.52818  eV     1   --> A_1  D_1  S_1  

 **************************************************************************

 **************************************************************************

                    xk=(   0.00000,   0.03396,   0.00000  )

     Band symmetry, C_2v (mm2)  point group:

     e(  1 -  1) =    -18.63133  eV     1   --> A_1  D_1  S_1  
     e(  2 -  2) =     -6.71523  eV     1   --> B_2  D_4  S_4  
     e(  3 -  3) =     -2.22696  eV     1   --> A_1  D_1  S_1  
     e(  4 -  4) =     -2.18724  eV     1   --> B_1  D_3  S_3  
     e(  5 -  5) =      3.77365  eV     1   --> A_1  D_1  S_1  
     e(  6 -  6) =      7.14717  eV     1   --> B_2  D_4  S_4  
     e(  7 -  7) =      9.26083  eV     1   --> A_1  D_1  S_1  
     e(  8 -  8) =      9.35448  eV     1   --> B_1  D_3  S_3  

 **************************************************************************

 **************************************************************************

                    xk=(   0.00000,   0.00000,   0.00000  )

     point group D_6h(6/mmm)
     there are 12 classes
     the character table:

       E     2C6   2C3   C2    3C2'  3C2'' i     2S3   2S6   s_h   3s_d  3s_v 
A_1g   1.00  1.00  1.00  1.00  1.00  1.00  1.00  1.00  1.00  1.00  1.00  1.00
A_2g   1.00  1.00  1.00  1.00 -1.00 -1.00  1.00  1.00  1.00  1.00 -1.00 -1.00
B_1g   1.00 -1.00  1.00 -1.00  1.00 -1.00  1.00 -1.00  1.00 -1.00  1.00 -1.00
B_2g   1.00 -1.00  1.00 -1.00 -1.00  1.00  1.00 -1.00  1.00 -1.00 -1.00  1.00
E_1g   2.00  1.00 -1.00 -2.00  0.00  0.00  2.00  1.00 -1.00 -2.00  0.00  0.00
E_2g   2.00 -1.00 -1.00  2.00  0.00  0.00  2.00 -1.00 -1.00  2.00  0.00  0.00
A_1u   1.00  1.00  1.00  1.00  1.00  1.00 -1.00 -1.00 -1.00 -1.00 -1.00 -1.00
A_2u   1.00  1.00  1.00  1.00 -1.00 -1.00 -1.00 -1.00 -1.00 -1.00  1.00  1.00
B_1u   1.00 -1.00  1.00 -1.00  1.00 -1.00 -1.00  1.00 -1.00  1.00 -1.00  1.00
B_2u   1.00 -1.00  1.00 -1.00 -1.00  1.00 -1.00  1.00 -1.00  1.00  1.00 -1.00
E_1u   2.00  1.00 -1.00 -2.00  0.00  0.00 -2.00 -1.00  1.00  2.00  0.00  0.00
E_2u   2.00 -1.00 -1.00  2.00  0.00  0.00 -2.00  1.00  1.00 -2.00  0.00  0.00

     the symmetry operations in each class and the name of the first element:

     E        1
                                                                 
     2C6      5    6
                                                                 
     2C3      7    8
                                                                 
     C2       2
                                                                 
     3C2'     4   12   11
                                                                 
     3C2''    3    9   10
                                                                 
     i       13
                                                                 
     2S3     17   18
                                                                 
     2S6     19   20
                                                                 
     s_h     14
                                                                 
     3s_d    16   24   23
                                                                 
     3s_v    15   21   22
                                                                 

     Band symmetry, D_6h(6/mmm) point group:

     e(  1 -  1) =    -18.65182  eV     1   --> A_1g           
     e(  2 -  2) =     -6.73977  eV     1   --> A_2u           
     e(  3 -  4) =     -2.14219  eV     2   --> E_2g           
     e(  5 -  5) =      3.74578  eV     1   --> A_1g           
     e(  6 -  6) =      7.12047  eV     1   --> A_2u           
     e(  7 -  8) =      9.26471  eV     2   --> E_1u           

 **************************************************************************

     BANDS        :      2.38s CPU      2.42s WALL


   This run was terminated on:   1: 3:38   7Sep2025            

=------------------------------------------------------------------------------=
   JOB DONE.
=------------------------------------------------------------------------------=
